{
  "@context": {
    "biotools": "https://bio.tools/ontology/",
    "brick": "https://brickschema.org/schema/Brick#",
    "bsc": "http://bioschemas.org/",
    "bsct": "http://bioschemas.org/types/",
    "csvw": "http://www.w3.org/ns/csvw#",
    "dc": "http://purl.org/dc/elements/1.1/",
    "dcam": "http://purl.org/dc/dcam/",
    "dcat": "http://www.w3.org/ns/dcat#",
    "dcmitype": "http://purl.org/dc/dcmitype/",
    "dcterms": "http://purl.org/dc/terms/",
    "doap": "http://usefulinc.com/ns/doap#",
    "edam": "http://edamontology.org/",
    "foaf": "http://xmlns.com/foaf/0.1/",
    "geo": "http://www.opengis.net/ont/geosparql#",
    "odrl": "http://www.w3.org/ns/odrl/2/",
    "org": "http://www.w3.org/ns/org#",
    "owl": "http://www.w3.org/2002/07/owl#",
    "prof": "http://www.w3.org/ns/dx/prof/",
    "prov": "http://www.w3.org/ns/prov#",
    "qb": "http://purl.org/linked-data/cube#",
    "rdf": "http://www.w3.org/1999/02/22-rdf-syntax-ns#",
    "rdfs": "http://www.w3.org/2000/01/rdf-schema#",
    "sc": "http://schema.org/",
    "schema": "https://schema.org/",
    "sh": "http://www.w3.org/ns/shacl#",
    "skos": "http://www.w3.org/2004/02/skos/core#",
    "sosa": "http://www.w3.org/ns/sosa/",
    "ssn": "http://www.w3.org/ns/ssn/",
    "time": "http://www.w3.org/2006/time#",
    "vann": "http://purl.org/vocab/vann/",
    "void": "http://rdfs.org/ns/void#",
    "wgs": "https://www.w3.org/2003/01/geo/wgs84_pos#",
    "xsd": "http://www.w3.org/2001/XMLSchema#"
  },
  "@graph": [
    {
      "@id": "https://doi.org/10.1002/JCC.26485",
      "@type": "sc:CreativeWork"
    },
    {
      "@id": "https://bio.tools/ispectron",
      "@type": "sc:SoftwareApplication",
      "dcterms:conformsTo": "https://bioschemas.org/profiles/ComputationalTool/0.6-DRAFT",
      "sc:additionalType": "Command-line tool",
      "sc:applicationSubCategory": [
        {
          "@id": "edam:topic_3047"
        },
        {
          "@id": "edam:topic_3314"
        },
        {
          "@id": "edam:topic_0593"
        },
        {
          "@id": "edam:topic_0176"
        }
      ],
      "sc:citation": [
        {
          "@id": "https://doi.org/10.1002/JCC.26485"
        },
        "pubmed:33556195"
      ],
      "sc:description": "A simulation interface for linear and nonlinear spectra with ab-initio quantum chemistry software.\n\nWe introduce iSPECTRON, a program that parses data from common quantum chemistry software (NWChem, OpenMolcas, Gaussian, Cobramm, etc.), produces the input files for the simulation of linear and nonlinear spectroscopy of molecules with the Spectron code, and analyzes the spectra with a broad range of tools. Vibronic spectra are expressed in term of the electronic eigenstates, obtained from quantum chemistry computations, and vibrational bath effects are incorporated in the framework of the displaced harmonic oscillator model, where all required quantities are computed at the Franck-Condon point. The program capabilities are illustrated by simulating linear absorption, transient absorption and two dimensional electronic spectra of the pyrene molecule",
      "sc:featureList": [
        {
          "@id": "edam:operation_3214"
        },
        {
          "@id": "edam:operation_1812"
        },
        {
          "@id": "edam:operation_2476"
        }
      ],
      "sc:name": "iSPECTRON",
      "sc:url": "https://github.com/ispectrongit/iSPECTRON/"
    }
  ]
}